# vtk DataFile Version 4.2
vtk output
ASCII
DATASET POLYDATA
POINTS 736 float
170.635 124.193 -35.93 170.887 124.212 -35.9308 170.963 124.083 -35.105 
170.33 124.008 -35.114 170.636 124.396 -35.91 170.891 124.396 -35.9215 
170.335 124.533 -35.0467 170.976 124.522 -35.0903 170.223 123.383 -33.8469 
169.168 123.574 -33.4282 169.607 123.972 -34.5432 169.63 124.384 -34.5204 
171.425 123.68 -33.3911 171.485 124.955 -33.3981 169.252 124.56 -33.4112 
170.219 125.171 -33.5148 170.04 122.564 -32.8024 169.132 122.686 -32.6803 
168.421 122.239 -31.3936 168.139 123.493 -31.9075 168.389 124.95 -31.6116 
170.953 122.74 -32.6915 169.554 125.534 -32.3153 170.576 125.842 -32.6797 
171.302 125.774 -32.6449 170.19 126.165 -31.5095 172.07 123.108 -31.7954 
171.222 122.305 -31.4969 172.338 124.097 -32.6302 172.762 123.929 -31.4867 
172.365 124.739 -32.6325 172.103 125.479 -32.2308 172.809 125.068 -31.4856 
171.666 126.131 -31.4798 169.898 121.936 -31.4401 168.159 121.25 -29.7977 
166.466 121.68 -29.096 167.187 122.338 -30.5287 167.03 123.327 -30.7128 
169.915 121.115 -29.6387 171.706 121.86 -29.6877 167.243 124.322 -30.6798 
172.438 122.769 -30.4434 173.226 123.52 -29.6692 166.657 124.581 -29.4095 
167.673 125.482 -29.8024 169.036 125.921 -30.9737 168.709 126.289 -29.5703 
172.611 125.891 -30.9036 173.423 125.004 -29.6931 172.957 126.114 -29.4849 
170.171 126.691 -29.6535 171.735 126.643 -29.6396 166.065 123.239 -29.2509 
168.065 120.421 -28.626 166.97 120.655 -28.4311 166.612 120.242 -27.2313 
165.688 121.037 -27.5086 164.868 121.876 -27.2019 165.393 122.068 -28.3497 
165.269 122.815 -28.3947 169.235 120.408 -28.6198 164.778 123.205 -27.2426 
165.521 123.864 -28.1062 166.046 125.108 -27.5896 170.508 120.662 -28.2423 
169.707 120.064 -27.3266 171.785 121.096 -27.5851 172.792 122.452 -28.9789 
173.121 122.189 -27.4261 167.233 125.807 -28.3833 168.157 126.618 -27.6471 
174.056 123.602 -27.4386 174.111 125.115 -27.8505 173.553 126.466 -27.4249 
170.063 127.151 -27.6726 171.879 127.108 -27.6885 168.049 119.914 -27.2269 
167.887 119.425 -25.3892 165.996 119.823 -25.4032 165.187 120.677 -26.1476 
169.653 119.586 -25.4093 164.118 121.383 -25.3317 170.935 120.311 -26.7992 
171.129 120.065 -25.3379 163.866 123.134 -25.3035 165 124.337 -26.7797 
164.482 124.584 -25.3277 172.307 120.862 -25.5546 173.461 121.874 -25.5294 
174.392 123.043 -25.4853 174.801 124.298 -26.4688 175.05 124.113 -25.1771 
174.836 125.239 -26.5595 165.479 125.581 -25.6553 166.861 126.158 -26.9141 
166.562 126.52 -25.4097 174.555 126.126 -26.4542 168.136 127.252 -25.5396 
170.046 127.809 -25.55 171.925 127.764 -25.8153 173.622 127.404 -25.3088 
174.777 126.453 -25.1295 165.886 118.966 -23.2396 164.157 119.804 -23.1615 
164.671 120.259 -24.6936 167.874 118.762 -23.2796 169.751 119.152 -23.3964 
171.393 119.82 -23.4556 172.619 120.656 -23.6774 173.733 121.607 -23.5579 
163.584 120.824 -23.9096 162.835 121.461 -23.0438 163.218 121.807 -24.3074 
163.139 122.668 -24.3047 162.766 123.068 -23.0667 163.413 123.796 -23.9728 
163.941 125.112 -23.3919 174.608 122.732 -23.6522 175.25 123.896 -23.4033 
165.078 125.89 -24.1804 165.976 126.822 -23.4392 175.196 125.304 -25.1212 
175.452 125.325 -23.342 175.093 126.7 -23.3579 167.91 127.801 -23.4535 
169.378 128.144 -24.0748 170.74 128.367 -24.4489 171.946 128.373 -24.4906 
170.216 128.634 -23.1222 173.046 128.181 -24.3687 174.258 127.69 -23.491 
173.326 128.42 -23.0892 163.979 119.005 -21.2027 162.78 120.084 -21.033 
163.131 120.374 -22.4742 165.236 118.575 -21.8518 167.316 118.249 -22.2209 
166.371 118.309 -22.2095 165.977 118.037 -20.9588 168.527 118.41 -21.8964 
167.71 117.983 -20.9717 169.965 118.697 -21.3158 171.901 119.635 -21.3466 
172.888 120.496 -22.1257 174.031 121.311 -21.3507 162.183 121.451 -21.1153 
162.126 123.076 -21.1297 162.988 124.284 -22.565 162.592 124.541 -21.099 
174.756 122.483 -22.1152 175.419 123.492 -21.3271 163.451 125.583 -21.4247 
164.721 126.232 -22.6938 164.426 126.579 -21.191 175.693 125.325 -21.3291 
175.316 127.075 -21.3027 165.816 127.39 -21.3867 167.309 128.089 -21.5103 
168.878 128.444 -22.6071 168.584 128.683 -21.1463 174.552 127.882 -22.0366 
173.769 128.619 -21.2321 171.908 128.735 -23.0399 170.214 129.027 -21.1948 
172.004 129.06 -21.2152 165.969 117.644 -19.0458 164.446 118.008 -18.9867 
164.745 118.242 -20.4302 167.688 117.617 -19.0514 169.005 118.109 -20.4678 
169.259 117.895 -19.0037 163.352 118.76 -19.3141 162.265 119.805 -19.1432 
161.475 121.339 -19.0326 161.427 123.202 -19.031 170.507 118.453 -19.3524 
171.938 119.155 -19.2043 173.12 120.254 -20.5792 173.253 119.987 -18.9987 
162.193 125.036 -19.1309 174.342 121.021 -19.1094 174.997 122.274 -20.5685 
175.282 122.186 -18.9728 163.129 125.888 -19.9355 163.931 126.888 -19.2058 
175.901 123.63 -19.1316 176.105 125.341 -19.2485 175.808 127.003 -19.1238 
165.669 127.905 -19.3843 166.989 128.335 -20.0267 168.02 128.923 -19.1799 
174.817 128.098 -20.5301 175.012 128.283 -18.9577 170.078 129.396 -19.1492 
171.986 129.457 -19.2258 173.713 129.095 -19.1044 165.855 117.359 -17.0254 
163.92 117.801 -17.0188 162.966 118.545 -17.8154 167.771 117.358 -17.034 
161.79 119.298 -17.056 169.706 117.725 -17.033 170.744 118.257 -17.8291 
171.909 118.736 -17.0695 161.174 120.623 -17.6484 160.533 121.356 -16.7361 
160.821 121.772 -17.9811 160.795 122.679 -17.9827 173.364 119.754 -17.0297 
174.535 120.84 -17.0369 175.554 122.079 -16.9765 160.466 123.048 -16.7447 
161.016 123.811 -17.6396 161.405 125.098 -17.0191 176.43 123.665 -16.8596 
176.614 125.359 -17.2818 162.798 126.2 -18.4275 162.478 126.481 -16.8807 
176.352 127.033 -16.8491 163.892 127.596 -17.0309 165.177 128.141 -17.782 
166.56 128.587 -18.5013 166.074 128.782 -16.8981 175.259 128.523 -16.9254 
167.975 129.365 -16.9884 170.1 129.918 -16.8649 172.005 129.949 -17.2784 
173.755 129.626 -16.8455 137.61 196.631 -19.1058 138.123 196.569 -19.2145 
138.118 196.221 -18.3424 137.345 196.482 -18.2219 137.596 196.986 -19.1123 
138.123 197.019 -19.2638 137.293 197.303 -18.201 138.635 196.632 -19.099 
138.888 196.485 -18.2056 138.649 196.985 -19.1055 138.12 197.519 -18.5687 
138.94 197.3 -18.1848 138.103 195.669 -16.8896 136.71 195.963 -16.4232 
136.433 197.274 -16.4558 139.478 195.981 -16.3653 137.435 198.024 -17.6447 
138.111 198.164 -17.7572 137.116 198.21 -16.4651 138.783 198.019 -17.6331 
139.757 197.262 -16.392 139.051 198.2 -16.4388 163.942 117.289 -14.8352 
162.38 117.928 -14.7572 162.631 118.256 -16.3033 165.834 116.992 -14.8902 
167.765 117.071 -14.9249 169.585 117.417 -14.8981 170.954 118.062 -16.3025 
171.059 117.932 -14.7451 161.337 118.844 -15.0478 160.449 119.869 -14.7489 
160.824 120.118 -16.2187 172.287 118.694 -14.9124 173.528 119.653 -14.948 
174.657 120.717 -14.9525 175.687 121.869 -14.9176 159.928 121.353 -14.8296 
159.876 123.032 -14.8922 160.617 124.274 -16.212 160.234 124.533 -14.7503 
176.576 123.114 -14.8146 177.06 124.372 -15.8532 177.218 124.201 -14.5294 
177.166 125.369 -15.9494 161.057 125.631 -15.0916 162.056 126.773 -14.9642 
177.035 126.361 -15.8499 163.334 127.784 -14.9581 164.793 128.388 -16.2487 
164.574 128.576 -14.7474 176.52 127.603 -14.8034 177.202 126.54 -14.5268 
175.527 128.783 -14.8728 166.057 129.132 -14.8636 167.781 129.644 -14.8985 
169.486 130.154 -14.8121 170.981 130.424 -15.8548 172.059 130.466 -15.9491 
170.803 130.598 -14.5296 173.086 130.306 -15.849 174.344 129.778 -14.8026 
173.273 130.466 -14.5266 138.072 194.928 -15.8064 137.15 195.068 -15.7004 
136.839 194.715 -14.5067 136.068 195.393 -14.8095 135.43 196.093 -14.5069 
135.784 196.284 -15.6451 135.703 196.885 -15.6544 138.981 195.088 -15.6646 
135.396 197.044 -14.5199 135.972 197.777 -14.89 136.812 198.491 -14.796 
140.017 195.47 -14.577 139.141 194.762 -14.4357 140.395 196.317 -15.5908 
140.676 196.198 -14.416 140.478 196.869 -15.6007 140.134 197.737 -14.6774 
140.721 196.992 -14.4394 139.21 198.473 -14.7463 138.085 198.499 -16.4804 
138.022 198.764 -14.7762 163.804 116.743 -12.5485 161.87 117.653 -12.7355 
161.026 118.563 -13.5389 165.826 116.507 -12.6559 160.074 119.401 -12.7702 
167.779 116.763 -12.7871 169.592 117.214 -12.8138 171.132 117.829 -12.7921 
172.428 118.646 -12.832 173.615 119.607 -12.8507 159.246 121.257 -12.7706 
159.242 123.121 -13.0646 174.715 120.655 -12.8534 175.744 121.758 -12.8386 
159.675 125 -12.6659 176.647 122.922 -12.7962 177.309 124.107 -12.7165 
160.712 125.916 -13.5618 161.509 126.973 -12.8803 177.428 125.372 -14.4932 
177.55 125.374 -12.6957 177.3 126.637 -12.7149 162.957 127.969 -13.0482 
164.292 128.728 -12.8473 176.617 127.806 -12.79 175.664 128.917 -12.8167 
165.923 129.305 -12.83 167.641 129.787 -12.8305 169.266 130.273 -12.7967 
170.699 130.705 -12.7178 174.551 129.872 -12.79 173.371 130.564 -12.715 
172.071 130.723 -14.4933 172.071 130.847 -12.6961 138 194.497 -14.449 
137.868 194.199 -12.6797 136.365 194.439 -12.726 135.741 195.124 -13.4707 
139.202 194.532 -12.6778 135.105 195.776 -12.7303 140.218 195.266 -12.7095 
140.84 196.157 -12.6848 135.114 197.304 -12.722 135.72 198.004 -13.5064 
136.403 198.689 -12.7918 140.297 197.978 -12.8157 140.868 197.107 -12.7148 
139.292 198.7 -12.8157 137.933 198.994 -12.8224 161.733 117.14 -10.6665 
160.438 118.05 -10.4972 160.716 118.284 -12.0284 163.129 116.451 -10.7457 
165.299 116.1 -11.5828 164.425 116.177 -11.5543 164.241 115.976 -10.3402 
166.451 116.219 -11.2579 165.675 115.889 -10.3465 167.831 116.437 -10.6564 
169.651 117.064 -10.7192 171.181 117.766 -10.7316 172.478 118.623 -10.7443 
173.645 119.594 -10.7514 159.334 119.362 -10.62 158.856 120.636 -11.2835 
158.234 121.423 -10.3346 158.564 121.916 -11.6758 158.521 123.118 -11.718 
174.731 120.638 -10.7524 175.758 121.722 -10.7479 158.731 124.268 -11.6198 
176.668 122.865 -10.7348 177.341 124.075 -10.7147 158.294 124.547 -10.2639 
159.137 125.583 -10.7087 160.386 126.273 -12.0513 160.104 126.67 -10.5388 
177.591 125.374 -10.708 177.336 126.671 -10.7141 161.553 127.686 -10.7392 
162.764 128.207 -11.5051 163.818 128.831 -10.7396 176.651 127.867 -10.7324 
[...]
POINT_DATA 736
COLOR_SCALARS scalars 1
0.282353 0.243137 0.34902 
0.407843 0.262745 
0.235294 0.376471 
0.341176 0.529412 
0.376471 0.282353 
0.231373 0.454902 
0.447059 0.309804 
0.490196 0.27451 
0.215686 0.364706 
0.513725 0.423529 
0.219608 0.584314 
0.219608 0.215686 
0.313725 0.552941 
0.313725 0.211765 
0.317647 0.219608 
0.560784 0.34902 
0.329412 0.392157 
0.509804 0.415686 
0.262745 0.329412 
0.509804 0.407843 
0.235294 0.654902 
0.423529 0.352941 
0.537255 0.196078 
0.270588 0.223529 
0.482353 0.337255 
0.403922 0.439216 
0.490196 0.266667 
0.211765 0.301961 
0.568627 0.380392 
0.266667 0.294118 
0.231373 0.419608 
0.65098 0.470588 
0.631373 0.313725 
0.498039 0.227451 
0.290196 0.65098 
0.341176 0.529412 
0.615686 0.447059 
0.498039 0.552941 
0.368627 0.466667 
0.392157 0.709804 
0.392157 0.494118 
0.2 0.254902 
0.537255 0.262745 
0.345098 0.588235 
0.352941 0.627451 
0.258824 0.32549 
0.345098 0.584314 
0.2 0.262745 
0.243137 0.419608 
0.588235 0.658824 
0.556863 0.313725 
0.494118 0.364706 
0.247059 0.541176 
0.466667 0.333333 
0.654902 0.423529 
0.596078 0.32549 
0.211765 0.219608 
0.337255 0.635294 
0.466667 0.682353 
0.388235 0.67451 
0.372549 0.435294 
0.490196 0.376471 
0.509804 0.658824 
0.239216 0.282353 
0.32549 0.231373 
0.623529 0.317647 
0.486275 0.305882 
0.203922 0.596078 
0.219608 0.207843 
0.294118 0.615686 
0.282353 0.545098 
0.415686 0.717647 
0.498039 0.439216 
0.45098 0.235294 
0.34902 0.737255 
0.447059 0.592157 
0.239216 0.34902 
0.545098 0.439216 
0.478431 0.6 
0.207843 0.278431 
0.694118 0.4 
0.376471 0.411765 
0.470588 0.380392 
0.305882 0.223529 
0.341176 0.215686 
0.262745 0.607843 
0.407843 0.552941 
0.564706 0.619608 
0.494118 0.235294 
0.290196 0.458824 
0.568627 0.243137 
0.294118 0.713725 
0.458824 0.505882 
0.6 0.501961 
0.588235 0.690196 
0.352941 0.227451 
0.278431 0.498039 
0.564706 0.482353 
0.462745 0.384314 
0.721569 0.4 
0.509804 0.305882 
0.690196 0.564706 
0.666667 0.290196 
0.223529 0.227451 
0.341176 0.635294 
0.341176 0.294118 
0.678431 0.568627 
0.564706 0.65098 
0.258824 0.333333 
0.560784 0.564706 
0.690196 0.25098 
0.305882 0.329412 
0.419608 0.576471 
0.65098 0.560784 
0.239216 0.309804 
0.454902 0.352941 
0.266667 0.34902 
0.388235 0.239216 
0.352941 0.266667 
0.513725 0.388235 
0.592157 0.466667 
0.509804 0.462745 
0.231373 0.32549 
0.305882 0.231373 
0.505882 0.305882 
0.454902 0.317647 
0.235294 0.513725 
0.443137 0.333333 
0.223529 0.231373 
0.588235 0.305882 
0.215686 0.568627 
0.341176 0.635294 
0.341176 0.403922 
0.427451 0.231373 
0.352941 0.564706 
0.219608 0.219608 
0.270588 0.643137 
0.396078 0.219608 
0.592157 0.223529 
0.239216 0.560784 
0.219608 0.329412 
0.309804 0.419608 
0.576471 0.223529 
0.270588 0.223529 
0.219608 0.560784 
0.219608 0.266667 
0.215686 0.317647 
0.564706 0.309804 
0.203922 0.211765 
0.207843 0.298039 
0.588235 0.368627 
0.486275 0.239216 
0.196078 0.2 
0.203922 0.537255 
0.219608 0.34902 
0.423529 0.478431 
0.529412 0.4 
0.670588 0.568627 
0.396078 0.490196 
0.356863 0.235294 
0.572549 0.341176 
0.517647 0.560784 
0.635294 0.341176 
0.47451 0.564706 
0.219608 0.717647 
0.454902 0.270588 
0.270588 0.219608 
0.619608 0.254902 
0.560784 0.329412 
0.313725 0.419608 
0.576471 0.223529 
0.560784 0.219608 
0.270588 0.270588 
0.341176 0.415686 
0.423529 0.662745 
0.270588 0.419608 
0.509804 0.207843 
0.384314 0.666667 
0.435294 0.572549 
0.235294 0.396078 
0.529412 0.482353 
0.270588 0.211765 
0.6 0.219608 
0.2 0.243137 
0.623529 0.25098 
0.533333 0.380392 
0.239216 0.576471 
0.341176 0.486275 
0.631373 0.317647 
0.231373 0.301961 
0.635294 0.341176 
0.262745 0.564706 
0.219608 0.372549 
0.596078 0.258824 
0.329412 0.270588 
0.219608 0.517647 
0.647059 0.270588 
0.560784 0.329412 
0.317647 0.419608 
0.576471 0.223529 
0.560784 0.219608 
0.270588 0.529412 
0.388235 0.290196 
0.486275 0.298039 
0.533333 0.215686 
0.52549 0.47451 
0.223529 0.27451 
0.603922 0.25098 
0.443137 0.498039 
0.580392 0.282353 
0.282353 0.67451 
0.2 0.223529 
0.560784 0.329412 
0.576471 0.247059 
0.196078 0.576471 
0.403922 0.247059 
0.576471 0.345098 
0.635294 0.341176 
0.423529 0.403922 
0.541176 0.482353 
0.564706 0.219608 
0.717647 0.4 
0.270588 0.219608 
0.576471 0.196078 
0.227451 0.560784 
0.329412 0.286275 
0.321569 0.419608 
0.576471 0.223529 
0.560784 0.219608 
0.270588 0.635294 
0.486275 0.635294 
0.560784 0.560784 
0.329412 0.560784 
0.223529 0.329412 
0.635294 0.266667 
0.486275 0.560784 
0.635294 0.32549 
0.262745 0.223529 
0.309804 0.231373 
0.580392 0.403922 
0.603922 0.392157 
0.639216 0.329412 
0.247059 0.576471 
0.341176 0.486275 
0.619608 0.635294 
0.341176 0.298039 
0.207843 0.196078 
0.564706 0.219608 
0.305882 0.576471 
0.231373 0.341176 
0.270588 0.219608 
0.490196 0.65098 
0.313725 0.560784 
0.329412 0.384314 
0.415686 0.490196 
0.607843 0.243137 
0.560784 0.223529 
0.27451 0.270588 
0.211765 0.368627 
0.6 0.372549 
0.211765 0.270588 
0.223529 0.223529 
0.580392 0.254902 
0.337255 0.576471 
0.247059 0.309804 
0.627451 0.392157 
0.207843 0.309804 
0.235294 0.603922 
0.223529 0.266667 
0.262745 0.207843 
0.517647 0.235294 
0.368627 0.301961 
0.647059 0.333333 
0.45098 0.235294 
0.584314 0.403922 
0.705882 0.407843 
0.247059 0.576471 
0.341176 0.572549 
0.701961 0.635294 
0.341176 0.388235 
0.564706 0.219608 
0.411765 0.67451 
0.447059 0.270588 
0.219608 0.584314 
0.196078 0.270588 
0.560784 0.329412 
0.4 0.478431 
0.505882 0.556863 
0.635294 0.258824 
0.560784 0.223529 
0.278431 0.360784 
0.52549 0.478431 
0.286275 0.45098 
0.290196 0.6 
0.341176 0.388235 
0.533333 0.505882 
0.396078 0.592157 
0.270588 0.694118 
0.45098 0.34902 
0.262745 0.643137 
0.301961 0.545098 
0.262745 0.309804 
0.352941 0.411765 
0.341176 0.690196 
0.356863 0.509804 
0.243137 0.588235 
0.403922 0.27451 
0.219608 0.247059 
0.576471 0.341176 
0.490196 0.658824 
0.333333 0.262745 
0.635294 0.341176 
0.564706 0.219608 
0.478431 0.521569 
0.286275 0.384314 
0.270588 0.219608 
0.556863 0.67451 
0.341176 0.560784 
0.329412 0.486275 
0.572549 0.6 
0.627451 0.211765 
0.254902 0.560784 
0.223529 0.278431 
0.282353 0.368627 
0.270588 0.329412 
0.32549 0.305882 
0.2 0.223529 
0.545098 0.278431 
0.321569 0.619608 
0.34902 0.313725 
0.623529 0.486275 
0.607843 0.294118 
0.219608 0.27451 
0.388235 0.290196 
0.509804 0.686275 
0.341176 0.576471 
0.290196 0.4 
0.760784 0.717647 
0.909804 0.768627 
0.952941 0.937255 
0.870588 0.74902 
0.890196 0.980392 
0.996078 0.996078 
0.980392 0.941176 
0.847059 0.780392 
0.937255 0.988235 
1 1 
1 0.992157 
0.964706 0.843137 
0.772549 0.890196 
0.94902 0.976471 
0.984314 0.988235 
0.992157 0.984314 
0.909804 0.65098 
0.792157 0.862745 
0.882353 0.898039 
0.921569 0.921569 
0.827451 0.666667 
0.670588 0.545098 
0.403922 0.482353 
0.470588 0.435294 
0.67451 0.686275 
0.694118 0.827451 
0.803922 0.858824 
0.929412 0.847059 
0.764706 0.901961 
0.898039 0.717647 
0.733333 
