# vtk DataFile Version 4.2
vtk output
ASCII
DATASET POLYDATA
POINTS 318 float
169.06 122.311 -25.3302 169.343 122.303 -25.3033 169.639 122.151 -24.4654 
168.926 122.189 -24.562 169.05 122.583 -25.3032 169.356 122.596 -25.3013 
168.884 122.855 -24.4657 169.708 122.921 -24.4917 169.674 121.348 -22.9911 
168.283 121.606 -23.1162 167.982 122.85 -23.0034 170.379 122.251 -23.9338 
170.729 121.994 -22.8414 170.442 122.739 -23.9641 168.997 123.526 -23.93 
169.524 123.585 -23.9426 168.713 123.757 -22.8587 170.229 123.373 -23.5906 
170.915 123.016 -22.9434 169.861 123.93 -22.8881 168.084 120.508 -22.0714 
167.078 120.592 -21.7569 167.002 121.441 -22.1604 169.152 120.528 -22.1058 
166.983 122.394 -22.1313 170.338 120.905 -21.7105 169.628 120.105 -20.8628 
171.473 121.545 -20.9615 166.271 122.823 -20.8405 167.401 123.373 -21.7476 
168.17 124.186 -21.1087 170.818 123.791 -22.3374 171.734 122.966 -21.3226 
171.369 124.077 -20.8363 169.857 124.443 -21.0826 167.984 119.803 -20.7179 
166.427 120.159 -20.5763 166.086 121.386 -21.0399 166.143 119.154 -18.8015 
164.915 119.988 -18.6622 165.354 120.39 -19.8939 165.146 121.271 -20.0543 
167.899 118.933 -18.8815 169.608 119.4 -18.9639 165.244 122.216 -20.0059 
170.798 120.484 -20.3152 170.985 120.102 -18.8667 164.721 122.472 -18.803 
165.594 123.387 -19.1483 166.94 123.867 -20.3738 166.599 124.281 -18.9544 
171.991 121.076 -18.9574 172.445 122.198 -20.0408 172.761 122.065 -18.7395 
172.563 123.074 -20.1234 172.344 123.851 -19.9967 168.138 124.859 -19.0871 
169.87 125.035 -19.1662 171.45 124.763 -18.9705 172.549 124.125 -18.7286 
164.501 121.211 -18.7769 165.374 118.836 -17.4891 164.168 119.535 -16.7543 
163.777 121.212 -17.1886 167.334 118.343 -17.9079 166.463 118.421 -17.8857 
166.034 118.176 -16.6608 164.019 122.933 -16.956 168.443 118.518 -17.5727 
167.659 118.067 -16.6843 169.692 118.854 -16.9587 171.146 119.807 -16.9768 
172.222 120.858 -16.9945 172.957 121.997 -16.9431 165.124 123.715 -17.7472 
165.961 124.644 -17.0077 172.955 123.146 -18.7114 173.165 123.23 -16.9252 
172.72 124.411 -16.9192 168.001 125.518 -16.9125 169.87 125.635 -17.289 
171.536 125.391 -16.8725 166.016 117.768 -14.7722 164.646 118.185 -14.6629 
164.87 118.499 -16.0958 167.571 117.728 -14.7778 168.825 118.215 -16.1627 
168.95 118.054 -14.6858 163.594 119.024 -14.781 162.698 120.016 -14.5196 
163.132 120.202 -15.8242 162.924 121.26 -15.9351 163.038 122.378 -15.8917 
170.131 118.752 -14.8776 171.338 119.693 -14.9319 172.353 120.779 -14.9464 
173.077 121.991 -14.9357 162.552 122.855 -14.5447 163.445 123.472 -15.467 
164.606 124.078 -16.2763 164.049 124.444 -14.7402 173.326 123.329 -14.9307 
172.983 124.645 -14.9467 165.697 125.268 -14.9736 167.281 125.901 -15.0555 
168.803 126.15 -15.8962 169.921 126.22 -15.9725 168.49 126.408 -14.6083 
170.974 126.082 -15.8819 172.154 125.61 -15.0232 171.249 126.292 -14.5903 
165.912 117.553 -12.796 164.371 117.97 -12.8084 163.214 118.747 -12.9691 
167.538 117.553 -12.7907 162.217 119.775 -12.7198 169.016 117.953 -12.7754 
170.287 118.695 -12.8222 171.439 119.651 -12.8454 162.299 121.331 -14.4715 
161.52 121.257 -12.5648 161.628 122.935 -12.5418 172.428 120.76 -12.8493 
173.171 122.017 -12.8369 162.938 123.921 -13.9947 162.513 124.229 -12.5337 
173.477 123.459 -12.8138 173.16 125.03 -12.7977 163.904 125.119 -12.8028 
165.606 125.87 -13.0075 166.949 126.187 -13.6202 167.95 126.66 -12.7596 
172.427 125.784 -13.537 171.654 126.47 -12.7086 169.918 126.553 -14.5253 
169.884 126.826 -12.682 165.758 117.427 -10.7217 163.895 117.853 -10.7113 
162.911 118.558 -11.456 167.495 117.467 -10.7282 161.771 119.319 -10.6396 
169.03 117.908 -10.73 170.332 118.674 -10.7415 171.479 119.641 -10.7466 
161.154 120.601 -11.2111 160.452 121.33 -10.2619 160.821 121.712 -11.5358 
160.856 122.554 -11.529 172.482 120.756 -10.7372 173.291 122.023 -10.6994 
160.493 122.925 -10.256 161.249 123.559 -11.1939 161.944 124.652 -10.6084 
173.74 123.482 -10.6117 173.584 124.984 -10.5511 163.656 125.698 -10.8376 
165.051 126.12 -11.4738 166.492 126.457 -12.1239 165.949 126.665 -10.5574 
172.68 125.991 -12.009 172.859 126.17 -10.4106 167.909 127.047 -10.6244 
169.863 127.206 -10.5614 171.6 126.918 -10.5222 163.977 117.529 -8.57734 
162.511 118.071 -8.41994 162.662 118.314 -9.94068 165.725 117.282 -8.62615 
167.469 117.415 -8.65746 169.017 117.902 -8.67312 170.324 118.689 -8.67744 
171.477 119.657 -8.67667 161.362 118.936 -8.54087 160.358 119.964 -8.30359 
160.762 120.149 -9.78317 172.511 120.761 -8.65433 173.427 122.005 -8.57232 
159.619 121.346 -8.175 159.654 122.95 -8.17097 160.874 124.028 -9.76946 
160.529 124.289 -8.28814 174.15 123.501 -8.28094 174.065 125.042 -8.24397 
161.865 125.385 -8.52369 163.118 125.945 -9.27499 164.496 126.372 -9.9568 
164.008 126.535 -8.43432 173.087 126.387 -8.39805 165.889 126.997 -8.53802 
167.855 127.36 -8.5206 169.909 127.66 -8.26009 171.689 127.394 -8.23592 
163.929 117.353 -6.56868 162.304 117.929 -6.61371 161.097 118.71 -6.7614 
165.662 117.184 -6.58935 160.082 119.665 -6.60392 167.424 117.426 -6.67136 
168.962 117.961 -6.71678 170.246 118.775 -6.71692 171.404 119.731 -6.72446 
159.304 120.749 -6.59109 158.812 121.632 -6.23971 158.97 121.823 -7.29053 
158.978 122.501 -7.28955 172.449 120.804 -6.70335 173.425 121.92 -6.66573 
158.814 122.659 -6.24008 159.324 123.492 -6.58495 160.172 124.481 -6.56622 
174.219 123.067 -6.524 174.684 123.994 -7.32803 174.743 123.905 -6.26589 
174.662 124.602 -7.31943 161.411 125.447 -6.57918 162.749 126.16 -7.8034 
162.624 126.235 -6.44713 174.166 125.508 -6.50128 174.73 124.704 -6.26125 
173.282 126.557 -6.58565 164.077 126.727 -6.5815 165.851 127.102 -6.6328 
167.703 127.436 -6.61535 169.395 127.797 -6.49809 170.588 128.06 -7.32013 
171.271 127.977 -7.31514 170.492 128.121 -6.25525 172.216 127.448 -6.49827 
171.39 128.03 -6.25684 163.905 117.253 -4.6362 161.928 118.032 -4.84934 
160.914 118.646 -5.41393 165.5 117.143 -4.65363 159.967 119.503 -4.85575 
167.348 117.598 -4.93074 168.835 118.158 -5.05067 170.016 119.034 -5.00792 
171.195 119.942 -5.0607 159.229 120.479 -5.36177 158.862 121.329 -4.82483 
172.197 121.03 -5.012 173.239 122.031 -5.06403 158.847 122.875 -4.83599 
159.2 123.641 -5.37735 159.874 124.326 -4.90348 174.025 123.097 -5.00987 
174.622 123.912 -5.01241 161.351 125.257 -4.91229 162.617 126.089 -4.97408 
174.009 125.492 -5.01015 174.617 124.702 -5.01299 173.211 126.483 -5.06217 
164.088 126.546 -4.97323 165.848 126.853 -4.96223 167.699 127.157 -4.95307 
169.394 127.558 -4.95198 170.49 127.981 -4.98903 172.2 127.284 -5.00373 
171.386 127.908 -5.00342 162.082 118.4 -3.67111 160.948 118.796 -3.72975 
160.828 118.632 -4.3663 163.901 117.777 -3.54861 164.972 116.735 -3.98331 
164.416 116.765 -3.97892 164.415 116.939 -3.59127 165.498 117.725 -3.56506 
164.971 116.921 -3.59596 167.342 118.21 -3.76118 168.636 118.542 -4.00998 
169.446 119.662 -3.68444 170.828 120.316 -3.98857 160.331 119.824 -3.57898 
159.374 120.446 -3.74777 159.209 120.346 -4.36539 171.565 121.625 -3.71177 
172.865 122.338 -4.05371 159.199 121.429 -3.73539 159.178 122.739 -3.76015 
159.154 123.713 -4.40203 159.302 123.592 -3.81526 173.425 123.547 -3.90672 
174.32 124.009 -4.19764 160.167 123.965 -3.73725 161.895 124.654 -3.58736 
162.775 125.714 -3.97051 173.429 125.033 -3.92809 174.32 124.602 -4.20285 
172.889 126.182 -4.11706 164.078 125.926 -3.79089 165.867 126.118 -3.70423 
167.836 126.366 -3.69559 169.907 126.806 -3.78405 170.585 127.645 -4.15245 
171.679 126.729 -3.90388 171.266 127.61 -4.18275 163.765 119.393 -2.92034 
161.909 119.614 -3.1046 165.664 119.371 -2.92208 167.606 119.535 -3.12777 
160.228 121.3 -3.19037 161.83 121.251 -2.82862 163.73 121.201 -2.64308 
165.732 121.209 -2.612 167.755 121.287 -2.73979 169.718 121.403 -3.09169 
160.192 122.809 -3.24778 161.824 122.994 -2.94533 163.745 123.049 -2.70112 
165.77 123.092 -2.61324 167.824 123.162 -2.66049 169.844 123.26 -2.86334 
171.744 123.375 -3.27204 163.83 124.721 -3.11224 165.811 124.81 -2.95411 
167.849 124.933 -2.94665 169.884 125.094 -3.06507 171.771 125.115 -3.349 

POLYGONS 316 1580
4 0 1 2 3 
4 0 4 5 1 
4 0 3 6 4 
4 1 5 7 2 
4 4 6 7 5 
4 3 2 8 9 
4 3 9 10 6 
4 2 11 12 8 
4 2 7 13 11 
4 6 14 15 7 
4 6 10 16 14 
4 7 17 18 13 
4 7 15 19 17 
4 9 20 21 22 
4 9 8 23 20 
4 9 22 24 10 
4 8 25 26 23 
4 8 12 27 25 
4 10 24 28 29 
4 10 29 30 16 
4 17 19 31 18 
4 11 13 18 12 
4 12 18 32 27 
4 18 31 33 32 
4 14 16 19 15 
4 16 30 34 19 
4 19 34 33 31 
4 21 20 35 36 
4 21 36 37 22 
4 20 23 26 35 
4 22 37 28 24 
4 36 38 39 40 
4 36 40 41 37 
4 36 35 42 38 
4 35 26 43 42 
4 37 41 44 28 
4 26 45 46 43 
4 26 25 27 45 
4 28 44 47 48 
4 28 49 30 29 
4 28 48 50 49 
4 27 51 46 45 
4 27 52 53 51 
4 27 32 54 52 
4 32 33 55 54 
4 30 49 50 56 
4 30 56 57 34 
4 34 57 58 33 
4 33 58 59 55 
4 40 39 60 41 
4 41 60 47 44 
4 39 38 61 62 
4 39 62 63 60 
4 38 42 64 65 
4 38 65 66 61 
4 60 63 67 47 
4 42 68 69 64 
4 42 43 70 68 
4 43 46 71 70 
4 46 51 72 71 
4 51 53 73 72 
4 47 67 74 48 
4 48 74 75 50 
4 52 54 76 53 
4 54 55 59 76 
4 53 76 77 73 
4 76 59 78 77 
4 50 75 79 56 
4 56 79 80 57 
4 57 80 81 58 
4 58 81 78 59 
4 65 64 69 66 
4 66 82 83 84 
4 66 84 62 61 
4 66 69 85 82 
4 69 86 87 85 
4 69 68 70 86 
4 62 84 83 88 
4 62 88 89 90 
4 62 90 91 63 
4 63 91 92 67 
4 70 93 87 86 
4 70 71 94 93 
4 71 72 95 94 
4 72 73 96 95 
4 67 92 97 98 
4 67 99 75 74 
4 67 98 100 99 
4 73 77 101 96 
4 77 78 102 101 
4 75 99 100 103 
4 75 103 104 79 
4 79 105 106 80 
4 79 104 107 105 
4 80 106 108 81 
4 81 109 102 78 
4 81 108 110 109 
4 83 82 111 112 
4 83 112 113 88 
4 82 85 114 111 
4 88 113 115 89 
4 85 87 116 114 
4 87 93 117 116 
4 93 94 118 117 
4 90 89 119 91 
4 91 119 97 92 
4 89 115 120 119 
4 119 120 121 97 
4 94 95 122 118 
4 95 96 123 122 
4 97 124 100 98 
4 97 121 125 124 
4 96 101 126 123 
4 101 102 127 126 
4 100 124 125 128 
4 100 128 129 103 
4 103 129 130 104 
4 104 130 131 107 
4 109 132 127 102 
4 109 110 133 132 
4 105 107 134 106 
4 106 134 110 108 
4 107 131 135 134 
4 134 135 133 110 
4 112 111 136 137 
4 112 137 138 113 
4 111 114 139 136 
4 113 138 140 115 
4 114 116 141 139 
4 116 117 142 141 
4 117 118 143 142 
4 115 140 144 120 
4 120 144 145 146 
4 120 146 147 121 
4 118 122 148 143 
4 122 123 149 148 
4 121 147 150 151 
4 121 151 152 125 
4 123 126 153 149 
4 126 127 154 153 
4 125 152 155 128 
4 128 155 156 129 
4 129 157 131 130 
4 129 156 158 157 
4 132 133 159 127 
4 127 159 160 154 
4 131 157 158 161 
4 131 161 162 135 
4 135 162 163 133 
4 133 163 160 159 
4 137 164 165 166 
4 137 166 140 138 
4 137 136 167 164 
4 136 139 168 167 
4 139 141 169 168 
4 141 142 170 169 
4 142 143 171 170 
4 140 166 165 172 
4 140 172 173 174 
4 140 174 145 144 
4 143 148 175 171 
4 148 149 176 175 
4 146 145 150 147 
4 145 174 173 177 
4 145 177 178 150 
4 150 179 152 151 
4 150 178 180 179 
4 149 153 181 176 
4 153 154 182 181 
4 152 179 180 183 
4 152 183 184 155 
4 155 185 158 156 
4 155 184 186 185 
4 154 160 187 182 
4 158 185 186 188 
4 158 188 189 161 
4 161 189 190 162 
4 162 190 191 163 
4 163 191 187 160 
4 165 164 192 193 
4 165 193 194 172 
4 164 167 195 192 
4 172 194 196 173 
4 167 168 197 195 
4 168 169 198 197 
4 169 170 199 198 
4 170 171 200 199 
4 173 196 201 177 
4 177 201 202 203 
4 177 203 204 178 
4 171 175 205 200 
4 175 176 206 205 
4 178 204 207 208 
4 178 208 209 180 
4 176 181 210 206 
4 181 211 212 210 
4 181 182 213 211 
4 180 209 214 183 
4 183 215 186 184 
4 183 214 216 215 
4 182 217 218 213 
4 182 187 219 217 
4 186 215 216 220 
4 186 220 221 188 
4 188 221 222 189 
4 189 222 223 190 
4 190 224 225 191 
4 190 223 226 224 
4 191 227 219 187 
4 191 225 228 227 
4 193 192 229 230 
4 193 230 231 194 
4 192 195 232 229 
4 194 231 233 196 
4 195 197 234 232 
4 197 198 235 234 
4 198 199 236 235 
4 199 200 237 236 
4 196 233 238 201 
4 201 238 239 202 
4 200 205 240 237 
4 205 206 241 240 
4 203 202 207 204 
4 202 239 242 207 
4 207 242 243 208 
4 208 243 244 209 
4 206 210 245 241 
4 210 212 246 245 
4 209 244 247 214 
4 214 247 248 216 
4 217 249 250 218 
4 217 219 251 249 
4 211 213 218 212 
4 212 218 250 246 
4 216 248 252 220 
4 220 252 253 221 
4 221 253 254 222 
4 222 254 255 223 
4 223 255 256 226 
4 227 257 251 219 
4 227 228 258 257 
4 224 226 228 225 
4 226 256 258 228 
4 230 259 260 261 
4 230 261 233 231 
4 230 229 262 259 
4 229 232 263 264 
4 229 264 265 262 
4 232 266 267 263 
4 232 234 268 266 
4 234 235 269 268 
4 235 236 270 269 
4 236 237 271 270 
4 233 261 260 272 
4 233 272 273 274 
4 233 274 239 238 
4 237 240 275 271 
4 240 241 276 275 
4 239 274 273 277 
4 239 277 278 242 
4 242 279 244 243 
4 242 278 280 279 
4 241 245 281 276 
4 245 246 282 281 
4 244 279 280 283 
4 244 283 284 247 
4 247 284 285 248 
4 249 286 287 250 
4 249 251 288 286 
4 246 250 287 282 
4 248 285 289 252 
4 252 289 290 253 
4 253 290 291 254 
4 254 291 292 255 
4 255 292 293 256 
4 257 294 288 251 
4 257 258 295 294 
4 256 293 295 258 
4 264 263 267 265 
4 265 267 266 262 
4 262 296 297 259 
4 262 266 298 296 
4 266 268 299 298 
4 260 259 297 272 
4 272 300 277 273 
4 272 297 301 300 
4 297 296 302 301 
4 296 298 303 302 
4 298 299 304 303 
4 268 269 270 299 
4 299 270 305 304 
4 270 271 275 305 
4 277 300 306 278 
4 300 301 307 306 
4 301 302 308 307 
4 302 303 309 308 
4 303 304 310 309 
4 304 305 311 310 
4 305 275 312 311 
4 275 276 281 312 
4 278 306 283 280 
4 306 307 284 283 
4 307 308 313 284 
4 308 309 314 313 
4 309 310 315 314 
4 310 311 316 315 
4 311 312 317 316 
4 312 281 286 317 
4 281 282 287 286 
4 284 313 289 285 
4 313 314 290 289 
4 314 315 291 290 
4 315 316 292 291 
4 316 317 294 292 
4 317 286 288 294 
4 292 294 295 293 

POINT_DATA 318
COLOR_SCALARS scalars 1
0.258824 0.243137 0.329412 
0.34902 0.294118 
0.32549 0.392157 
0.427451 0.458824 
0.490196 0.509804 
0.203922 0.309804 
0.305882 0.203922 
0.239216 0.298039 
0.541176 0.415686 
0.345098 0.286275 
0.235294 0.360784 
0.235294 0.333333 
0.588235 0.34902 
0.415686 0.466667 
0.627451 0.392157 
0.27451 0.521569 
0.368627 0.447059 
0.415686 0.380392 
0.52549 0.521569 
0.380392 0.262745 
0.345098 0.54902 
0.462745 0.278431 
0.203922 0.27451 
0.396078 0.603922 
0.25098 0.329412 
0.521569 0.203922 
0.262745 0.282353 
0.196078 0.490196 
0.552941 0.458824 
0.25098 0.490196 
0.658824 0.490196 
0.627451 0.223529 
0.219608 0.286275 
0.509804 0.67451 
0.286275 0.564706 
0.341176 0.619608 
0.317647 0.733333 
0.407843 0.356863 
0.427451 0.309804 
0.580392 0.65098 
0.54902 0.329412 
0.254902 0.211765 
0.309804 0.223529 
0.227451 0.552941 
0.305882 0.215686 
0.27451 0.219608 
0.568627 0.341176 
0.623529 0.32549 
0.368627 0.611765 
0.239216 0.34902 
0.458824 0.364706 
0.486275 0.627451 
0.227451 0.27451 
0.27451 0.227451 
0.611765 0.305882 
0.372549 0.298039 
0.611765 0.333333 
0.396078 0.235294 
0.572549 0.345098 
0.411765 0.545098 
0.517647 0.627451 
0.329412 0.215686 
0.329412 0.486275 
0.423529 0.458824 
0.560784 0.678431 
0.32549 0.67451 
0.384314 0.345098 
0.415686 0.415686 
0.341176 0.67451 
0.356863 0.486275 
0.239216 0.576471 
0.345098 0.682353 
0.419608 0.298039 
0.294118 0.631373 
0.337255 0.415686 
0.666667 0.447059 
0.513725 0.478431 
0.568627 0.639216 
0.227451 0.27451 
0.219608 0.27451 
0.372549 0.486275 
0.462745 0.384314 
0.247059 0.207843 
0.458824 0.384314 
0.243137 0.580392 
0.345098 0.576471 
0.329412 0.258824 
0.635294 0.341176 
0.537255 0.537255 
0.25098 0.329412 
0.541176 0.537255 
0.560784 0.67451 
0.231373 0.286275 
0.32549 0.321569 
0.419608 0.556863 
0.537255 0.454902 
0.32549 0.643137 
0.509804 0.403922 
0.427451 0.270588 
0.592157 0.34902 
0.607843 0.290196 
0.207843 0.207843 
0.635294 0.341176 
0.290196 0.603922 
0.384314 0.541176 
0.207843 0.207843 
0.207843 0.588235 
0.223529 0.239216 
0.537255 0.207843 
0.32549 0.294118 
0.345098 0.458824 
0.580392 0.211765 
0.207843 0.227451 
0.545098 0.211765 
0.52549 0.403922 
0.709804 0.564706 
0.478431 0.47451 
0.294118 0.607843 
0.34902 0.682353 
0.372549 0.635294 
0.341176 0.372549 
0.67451 0.443137 
0.541176 0.207843 
0.615686 0.254902 
0.537255 0.207843 
0.32549 0.301961 
0.368627 0.498039 
0.603922 0.239216 
0.54902 0.215686 
0.482353 0.282353 
0.227451 0.6 
0.215686 0.196078 
0.239216 0.619608 
0.25098 0.517647 
0.317647 0.623529 
0.352941 0.552941 
0.282353 0.223529 
0.635294 0.341176 
0.454902 0.45098 
0.215686 0.270588 
0.541176 0.207843 
0.498039 0.647059 
0.270588 0.537255 
0.207843 0.32549 
0.313725 0.392157 
0.537255 0.627451 
0.254902 0.552941 
0.219608 0.878431 
0.776471 0.894118 
0.815686 0.752941 
0.921569 0.972549 
0.980392 0.956863 
0.858824 0.741176 
0.894118 0.937255 
0.956863 0.968627 
0.952941 0.827451 
0.701961 0.756863 
0.843137 0.894118 
0.807843 
